Title: * FILE: inv.sp
Date: Mon Jan 12 11:18:08  2015
Plotname: Transient Analysis
Flags: real
No. Variables: 7
No. Points: 0       
Command: version 17
Variables:
