Title: * FILE: Carry.sp
Date: Mon Jan 26 10:06:08  2015
Plotname: Transient Analysis
Flags: real
No. Variables: 13
No. Points: 0       
Command: version 17
Variables:
