Title: * FILE: ALU.sp
Date: Thu Feb 26 13:08:51  2015
Plotname: Transient Analysis
Flags: real
No. Variables: 48
No. Points: 0       
Command: version 17
Variables:
