Title: * FILE: datapath.sp
Date: Fri Feb 27 21:09:13  2015
Plotname: Transient Analysis
Flags: real
No. Variables: 269
No. Points: 0       
Command: version 17
Variables:
