Title: * FILE: datapath.sp
Date: Mon Mar  2 10:03:05  2015
Plotname: Transient Analysis
Flags: real
No. Variables: 269
No. Points: 