Title: * FILE: OneBit_Slice.sp
Date: Thu Feb 26 20:46:20  2015
Plotname: Transient Analysis
Flags: real
No. Variables: 98
No. Points: 0       
Command: version 17
Variables:
